
***************************************************************
*                 Welcome to use GPUMD                        *
*    (Graphics Processing Units Molecular Dynamics)           *
*                     Version 3.8                             *
*              This is the nep executable                     *
***************************************************************


---------------------------------------------------------------
GPU information:
---------------------------------------------------------------

number of GPUs = 8
Device id:                   0
    Device name:             Tesla V100-SXM2-32GB
    Compute capability:      7.0
    Amount of global memory: 31.7391 GB
    Number of SMs:           80
Device id:                   1
    Device name:             Tesla V100-SXM2-32GB
    Compute capability:      7.0
    Amount of global memory: 31.7391 GB
    Number of SMs:           80
Device id:                   2
    Device name:             Tesla V100-SXM2-32GB
    Compute capability:      7.0
    Amount of global memory: 31.7391 GB
    Number of SMs:           80
Device id:                   3
    Device name:             Tesla V100-SXM2-32GB
    Compute capability:      7.0
    Amount of global memory: 31.7391 GB
    Number of SMs:           80
Device id:                   4
    Device name:             Tesla V100-SXM2-32GB
    Compute capability:      7.0
    Amount of global memory: 31.7391 GB
    Number of SMs:           80
Device id:                   5
    Device name:             Tesla V100-SXM2-32GB
    Compute capability:      7.0
    Amount of global memory: 31.7391 GB
    Number of SMs:           80
Device id:                   6
    Device name:             Tesla V100-SXM2-32GB
    Compute capability:      7.0
    Amount of global memory: 31.7391 GB
    Number of SMs:           80
Device id:                   7
    Device name:             Tesla V100-SXM2-32GB
    Compute capability:      7.0
    Amount of global memory: 31.7391 GB
    Number of SMs:           80
GPU-0 can access GPU-1.
GPU-0 can access GPU-2.
GPU-0 can access GPU-3.
GPU-0 can access GPU-4.
GPU-0 can access GPU-5.
GPU-0 can access GPU-6.
GPU-0 can access GPU-7.
GPU-1 can access GPU-0.
GPU-1 can access GPU-2.
GPU-1 can access GPU-3.
GPU-1 can access GPU-4.
GPU-1 can access GPU-5.
GPU-1 can access GPU-6.
GPU-1 can access GPU-7.
GPU-2 can access GPU-0.
GPU-2 can access GPU-1.
GPU-2 can access GPU-3.
GPU-2 can access GPU-4.
GPU-2 can access GPU-5.
GPU-2 can access GPU-6.
GPU-2 can access GPU-7.
GPU-3 can access GPU-0.
GPU-3 can access GPU-1.
GPU-3 can access GPU-2.
GPU-3 can access GPU-4.
GPU-3 can access GPU-5.
GPU-3 can access GPU-6.
GPU-3 can access GPU-7.
GPU-4 can access GPU-0.
GPU-4 can access GPU-1.
GPU-4 can access GPU-2.
GPU-4 can access GPU-3.
GPU-4 can access GPU-5.
GPU-4 can access GPU-6.
GPU-4 can access GPU-7.
GPU-5 can access GPU-0.
GPU-5 can access GPU-1.
GPU-5 can access GPU-2.
GPU-5 can access GPU-3.
GPU-5 can access GPU-4.
GPU-5 can access GPU-6.
GPU-5 can access GPU-7.
GPU-6 can access GPU-0.
GPU-6 can access GPU-1.
GPU-6 can access GPU-2.
GPU-6 can access GPU-3.
GPU-6 can access GPU-4.
GPU-6 can access GPU-5.
GPU-6 can access GPU-7.
GPU-7 can access GPU-0.
GPU-7 can access GPU-1.
GPU-7 can access GPU-2.
GPU-7 can access GPU-3.
GPU-7 can access GPU-4.
GPU-7 can access GPU-5.
GPU-7 can access GPU-6.

---------------------------------------------------------------
Started running nep.
---------------------------------------------------------------


---------------------------------------------------------------
Started reading nep.in.
---------------------------------------------------------------

The input population size is not divisible by the number of GPUs.
This causes an inefficient use of resources.
The population size has therefore been increased to 56.
Input or default parameters:
    (default) model_type = potential.
    (default) calculation mode = train.
    (input)   use NEP version 4.
    (input)   number of atom types = 3.
        (default) type 0 (O with Z = 8) has force weight of 1.
        (default) type 1 (Si with Z = 14) has force weight of 1.
        (default) type 2 (Au with Z = 79) has force weight of 1.
    (default) will not add the ZBL potential.
    (input)   radial cutoff = 7.5 A.
    (input)   angular cutoff = 7.5 A.
    (input)   n_max_radial = 8.
    (input)   n_max_angular = 8.
    (input)   basis_size_radial = 12.
    (input)   basis_size_angular = 12.
    (input)   l_max_3body = 4.
    (input)   l_max_4body = 2.
    (input)   l_max_5body = 0.
    (input)   number of neurons = 50.
    (default) lambda_1 = -1.
    (default) lambda_2 = -1.
    (input)   lambda_e = 0.1.
    (input)   lambda_f = 0.9.
    (input)   lambda_v = 0.
    (default) lambda_shear = 1.
    (default) force_delta = 0.
    (input)   batch size = 1000.
    (input)   population size = 56.
    (input)   maximum number of generations = 100000.
Some calculated parameters:
    number of radial descriptor components = 9.
    number of angular descriptor components = 45.
    total number of descriptor components = 54.
    NN architecture = 54-50-1.
    number of NN parameters to be optimized = 8401.
    number of descriptor parameters to be optimized = 2106.
    total number of parameters to be optimized = 10507.

---------------------------------------------------------------
Finished reading nep.in.
---------------------------------------------------------------


---------------------------------------------------------------
Started reading train.xyz.
---------------------------------------------------------------

Number of configurations = 55871.
Number of devices = 8
Number of batches = 56
Hello, I changed the batch_size from 1000 to 998.

Batch 0:
Number of configurations = 998.

---------------------------------------------------------------
Constructing train_set in device  0.
Total number of atoms = 120740.
Number of atoms in the largest configuration = 303.
Number of configurations having virial = 0.
Radial descriptor with a cutoff of 7.5 A:
    Minimum number of neighbors for one atom = 0.
    Maximum number of neighbors for one atom = 122.
Angular descriptor with a cutoff of 7.5 A:
    Minimum number of neighbors for one atom = 0.
    Maximum number of neighbors for one atom = 122.
---------------------------------------------------------------


---------------------------------------------------------------
Constructing train_set in device  1.
Total number of atoms = 120740.
Number of atoms in the largest configuration = 303.
Number of configurations having virial = 0.
Radial descriptor with a cutoff of 7.5 A:
    Minimum number of neighbors for one atom = 0.
    Maximum number of neighbors for one atom = 122.
Angular descriptor with a cutoff of 7.5 A:
    Minimum number of neighbors for one atom = 0.
    Maximum number of neighbors for one atom = 122.
---------------------------------------------------------------


---------------------------------------------------------------
Constructing train_set in device  2.
Total number of atoms = 120740.
Number of atoms in the largest configuration = 303.
Number of configurations having virial = 0.
Radial descriptor with a cutoff of 7.5 A:
    Minimum number of neighbors for one atom = 0.
    Maximum number of neighbors for one atom = 122.
Angular descriptor with a cutoff of 7.5 A:
    Minimum number of neighbors for one atom = 0.
    Maximum number of neighbors for one atom = 122.
---------------------------------------------------------------


---------------------------------------------------------------
Constructing train_set in device  3.
Total number of atoms = 120740.
Number of atoms in the largest configuration = 303.
Number of configurations having virial = 0.
Radial descriptor with a cutoff of 7.5 A:
    Minimum number of neighbors for one atom = 0.
    Maximum number of neighbors for one atom = 122.
Angular descriptor with a cutoff of 7.5 A:
    Minimum number of neighbors for one atom = 0.
    Maximum number of neighbors for one atom = 122.
---------------------------------------------------------------


---------------------------------------------------------------
Constructing train_set in device  4.
Total number of atoms = 120740.
Number of atoms in the largest configuration = 303.
Number of configurations having virial = 0.
Radial descriptor with a cutoff of 7.5 A:
    Minimum number of neighbors for one atom = 0.
    Maximum number of neighbors for one atom = 122.
Angular descriptor with a cutoff of 7.5 A:
    Minimum number of neighbors for one atom = 0.
    Maximum number of neighbors for one atom = 122.
---------------------------------------------------------------


---------------------------------------------------------------
Constructing train_set in device  5.
Total number of atoms = 120740.
Number of atoms in the largest configuration = 303.
Number of configurations having virial = 0.
Radial descriptor with a cutoff of 7.5 A:
    Minimum number of neighbors for one atom = 0.
    Maximum number of neighbors for one atom = 122.
Angular descriptor with a cutoff of 7.5 A:
    Minimum number of neighbors for one atom = 0.
    Maximum number of neighbors for one atom = 122.
---------------------------------------------------------------


---------------------------------------------------------------
Constructing train_set in device  6.
Total number of atoms = 120740.
Number of atoms in the largest configuration = 303.
Number of configurations having virial = 0.
Radial descriptor with a cutoff of 7.5 A:
    Minimum number of neighbors for one atom = 0.
    Maximum number of neighbors for one atom = 122.
Angular descriptor with a cutoff of 7.5 A:
    Minimum number of neighbors for one atom = 0.
    Maximum number of neighbors for one atom = 122.
---------------------------------------------------------------


---------------------------------------------------------------
Constructing train_set in device  7.
Total number of atoms = 120740.
Number of atoms in the largest configuration = 303.
Number of configurations having virial = 0.
Radial descriptor with a cutoff of 7.5 A:
    Minimum number of neighbors for one atom = 0.
    Maximum number of neighbors for one atom = 122.
Angular descriptor with a cutoff of 7.5 A:
    Minimum number of neighbors for one atom = 0.
    Maximum number of neighbors for one atom = 122.
---------------------------------------------------------------


Batch 1:
Number of configurations = 998.

---------------------------------------------------------------
Constructing train_set in device  0.
Total number of atoms = 117292.
Number of atoms in the largest configuration = 303.
Number of configurations having virial = 0.
Radial descriptor with a cutoff of 7.5 A:
    Minimum number of neighbors for one atom = 0.
    Maximum number of neighbors for one atom = 121.
Angular descriptor with a cutoff of 7.5 A:
    Minimum number of neighbors for one atom = 0.
    Maximum number of neighbors for one atom = 121.
---------------------------------------------------------------


---------------------------------------------------------------
Constructing train_set in device  1.
Total number of atoms = 117292.
Number of atoms in the largest configuration = 303.
Number of configurations having virial = 0.
Radial descriptor with a cutoff of 7.5 A:
    Minimum number of neighbors for one atom = 0.
    Maximum number of neighbors for one atom = 121.
Angular descriptor with a cutoff of 7.5 A:
    Minimum number of neighbors for one atom = 0.
    Maximum number of neighbors for one atom = 121.
---------------------------------------------------------------


---------------------------------------------------------------
Constructing train_set in device  2.
Total number of atoms = 117292.
Number of atoms in the largest configuration = 303.
Number of configurations having virial = 0.
Radial descriptor with a cutoff of 7.5 A:
    Minimum number of neighbors for one atom = 0.
    Maximum number of neighbors for one atom = 121.
Angular descriptor with a cutoff of 7.5 A:
    Minimum number of neighbors for one atom = 0.
    Maximum number of neighbors for one atom = 121.
---------------------------------------------------------------


---------------------------------------------------------------
Constructing train_set in device  3.
Total number of atoms = 117292.
Number of atoms in the largest configuration = 303.
Number of configurations having virial = 0.
Radial descriptor with a cutoff of 7.5 A:
    Minimum number of neighbors for one atom = 0.
    Maximum number of neighbors for one atom = 121.
Angular descriptor with a cutoff of 7.5 A:
    Minimum number of neighbors for one atom = 0.
    Maximum number of neighbors for one atom = 121.
---------------------------------------------------------------


---------------------------------------------------------------
Constructing train_set in device  4.
Total number of atoms = 117292.
Number of atoms in the largest configuration = 303.
Number of configurations having virial = 0.
Radial descriptor with a cutoff of 7.5 A:
    Minimum number of neighbors for one atom = 0.
    Maximum number of neighbors for one atom = 121.
Angular descriptor with a cutoff of 7.5 A:
    Minimum number of neighbors for one atom = 0.
    Maximum number of neighbors for one atom = 121.
---------------------------------------------------------------


---------------------------------------------------------------
Constructing train_set in device  5.
Total number of atoms = 117292.
Number of atoms in the largest configuration = 303.
Number of configurations having virial = 0.
Radial descriptor with a cutoff of 7.5 A:
    Minimum number of neighbors for one atom = 0.
    Maximum number of neighbors for one atom = 121.
Angular descriptor with a cutoff of 7.5 A:
    Minimum number of neighbors for one atom = 0.
    Maximum number of neighbors for one atom = 121.
---------------------------------------------------------------


---------------------------------------------------------------
Constructing train_set in device  6.
Total number of atoms = 117292.
Number of atoms in the largest configuration = 303.
Number of configurations having virial = 0.
Radial descriptor with a cutoff of 7.5 A:
    Minimum number of neighbors for one atom = 0.
    Maximum number of neighbors for one atom = 121.
Angular descriptor with a cutoff of 7.5 A:
    Minimum number of neighbors for one atom = 0.
    Maximum number of neighbors for one atom = 121.
---------------------------------------------------------------


---------------------------------------------------------------
Constructing train_set in device  7.
Total number of atoms = 117292.
Number of atoms in the largest configuration = 303.
Number of configurations having virial = 0.
Radial descriptor with a cutoff of 7.5 A:
    Minimum number of neighbors for one atom = 0.
    Maximum number of neighbors for one atom = 121.
Angular descriptor with a cutoff of 7.5 A:
    Minimum number of neighbors for one atom = 0.
    Maximum number of neighbors for one atom = 121.
---------------------------------------------------------------


Batch 2:
Number of configurations = 998.

---------------------------------------------------------------
Constructing train_set in device  0.
Total number of atoms = 120041.
Number of atoms in the largest configuration = 303.
Number of configurations having virial = 0.
Radial descriptor with a cutoff of 7.5 A:
    Minimum number of neighbors for one atom = 0.
    Maximum number of neighbors for one atom = 121.
Angular descriptor with a cutoff of 7.5 A:
    Minimum number of neighbors for one atom = 0.
    Maximum number of neighbors for one atom = 121.
---------------------------------------------------------------


---------------------------------------------------------------
Constructing train_set in device  1.
Total number of atoms = 120041.
Number of atoms in the largest configuration = 303.
Number of configurations having virial = 0.
Radial descriptor with a cutoff of 7.5 A:
    Minimum number of neighbors for one atom = 0.
    Maximum number of neighbors for one atom = 121.
Angular descriptor with a cutoff of 7.5 A:
    Minimum number of neighbors for one atom = 0.
    Maximum number of neighbors for one atom = 121.
---------------------------------------------------------------


---------------------------------------------------------------
Constructing train_set in device  2.
Total number of atoms = 120041.
Number of atoms in the largest configuration = 303.
Number of configurations having virial = 0.
Radial descriptor with a cutoff of 7.5 A:
    Minimum number of neighbors for one atom = 0.
    Maximum number of neighbors for one atom = 121.
Angular descriptor with a cutoff of 7.5 A:
    Minimum number of neighbors for one atom = 0.
    Maximum number of neighbors for one atom = 121.
---------------------------------------------------------------


---------------------------------------------------------------
Constructing train_set in device  3.
Total number of atoms = 120041.
Number of atoms in the largest configuration = 303.
Number of configurations having virial = 0.
Radial descriptor with a cutoff of 7.5 A:
    Minimum number of neighbors for one atom = 0.
    Maximum number of neighbors for one atom = 121.
Angular descriptor with a cutoff of 7.5 A:
    Minimum number of neighbors for one atom = 0.
    Maximum number of neighbors for one atom = 121.
---------------------------------------------------------------


---------------------------------------------------------------
Constructing train_set in device  4.
Total number of atoms = 120041.
Number of atoms in the largest configuration = 303.
Number of configurations having virial = 0.
Radial descriptor with a cutoff of 7.5 A:
    Minimum number of neighbors for one atom = 0.
    Maximum number of neighbors for one atom = 121.
Angular descriptor with a cutoff of 7.5 A:
    Minimum number of neighbors for one atom = 0.
    Maximum number of neighbors for one atom = 121.
---------------------------------------------------------------


---------------------------------------------------------------
Constructing train_set in device  5.
Total number of atoms = 120041.
Number of atoms in the largest configuration = 303.
Number of configurations having virial = 0.
Radial descriptor with a cutoff of 7.5 A:
    Minimum number of neighbors for one atom = 0.
    Maximum number of neighbors for one atom = 121.
Angular descriptor with a cutoff of 7.5 A:
    Minimum number of neighbors for one atom = 0.
    Maximum number of neighbors for one atom = 121.
---------------------------------------------------------------


---------------------------------------------------------------
Constructing train_set in device  6.
Total number of atoms = 120041.
Number of atoms in the largest configuration = 303.
Number of configurations having virial = 0.
Radial descriptor with a cutoff of 7.5 A:
    Minimum number of neighbors for one atom = 0.
    Maximum number of neighbors for one atom = 121.
Angular descriptor with a cutoff of 7.5 A:
    Minimum number of neighbors for one atom = 0.
    Maximum number of neighbors for one atom = 121.
---------------------------------------------------------------


---------------------------------------------------------------
Constructing train_set in device  7.
Total number of atoms = 120041.
Number of atoms in the largest configuration = 303.
Number of configurations having virial = 0.
Radial descriptor with a cutoff of 7.5 A:
    Minimum number of neighbors for one atom = 0.
    Maximum number of neighbors for one atom = 121.
Angular descriptor with a cutoff of 7.5 A:
    Minimum number of neighbors for one atom = 0.
    Maximum number of neighbors for one atom = 121.
---------------------------------------------------------------


Batch 3:
Number of configurations = 998.

---------------------------------------------------------------
Constructing train_set in device  0.
Total number of atoms = 123580.
Number of atoms in the largest configuration = 303.
Number of configurations having virial = 0.
Radial descriptor with a cutoff of 7.5 A:
    Minimum number of neighbors for one atom = 0.
    Maximum number of neighbors for one atom = 121.
Angular descriptor with a cutoff of 7.5 A:
    Minimum number of neighbors for one atom = 0.
    Maximum number of neighbors for one atom = 121.
---------------------------------------------------------------


---------------------------------------------------------------
Constructing train_set in device  1.
Total number of atoms = 123580.
Number of atoms in the largest configuration = 303.
Number of configurations having virial = 0.
Radial descriptor with a cutoff of 7.5 A:
    Minimum number of neighbors for one atom = 0.
    Maximum number of neighbors for one atom = 121.
Angular descriptor with a cutoff of 7.5 A:
    Minimum number of neighbors for one atom = 0.
    Maximum number of neighbors for one atom = 121.
---------------------------------------------------------------


---------------------------------------------------------------
Constructing train_set in device  2.
Total number of atoms = 123580.
Number of atoms in the largest configuration = 303.
Number of configurations having virial = 0.
Radial descriptor with a cutoff of 7.5 A:
    Minimum number of neighbors for one atom = 0.
    Maximum number of neighbors for one atom = 121.
Angular descriptor with a cutoff of 7.5 A:
    Minimum number of neighbors for one atom = 0.
    Maximum number of neighbors for one atom = 121.
---------------------------------------------------------------


---------------------------------------------------------------
Constructing train_set in device  3.
Total number of atoms = 123580.
Number of atoms in the largest configuration = 303.
Number of configurations having virial = 0.
Radial descriptor with a cutoff of 7.5 A:
    Minimum number of neighbors for one atom = 0.
    Maximum number of neighbors for one atom = 121.
Angular descriptor with a cutoff of 7.5 A:
    Minimum number of neighbors for one atom = 0.
    Maximum number of neighbors for one atom = 121.
---------------------------------------------------------------


---------------------------------------------------------------
Constructing train_set in device  4.
Total number of atoms = 123580.
Number of atoms in the largest configuration = 303.
Number of configurations having virial = 0.
Radial descriptor with a cutoff of 7.5 A:
    Minimum number of neighbors for one atom = 0.
    Maximum number of neighbors for one atom = 121.
Angular descriptor with a cutoff of 7.5 A:
    Minimum number of neighbors for one atom = 0.
    Maximum number of neighbors for one atom = 121.
---------------------------------------------------------------


---------------------------------------------------------------
Constructing train_set in device  5.
Total number of atoms = 123580.
Number of atoms in the largest configuration = 303.
Number of configurations having virial = 0.
Radial descriptor with a cutoff of 7.5 A:
    Minimum number of neighbors for one atom = 0.
    Maximum number of neighbors for one atom = 121.
Angular descriptor with a cutoff of 7.5 A:
    Minimum number of neighbors for one atom = 0.
    Maximum number of neighbors for one atom = 121.
---------------------------------------------------------------


---------------------------------------------------------------
Constructing train_set in device  6.
Total number of atoms = 123580.
Number of atoms in the largest configuration = 303.
Number of configurations having virial = 0.
Radial descriptor with a cutoff of 7.5 A:
    Minimum number of neighbors for one atom = 0.
    Maximum number of neighbors for one atom = 121.
Angular descriptor with a cutoff of 7.5 A:
    Minimum number of neighbors for one atom = 0.
    Maximum number of neighbors for one atom = 121.
---------------------------------------------------------------


---------------------------------------------------------------
Constructing train_set in device  7.
Total number of atoms = 123580.
Number of atoms in the largest configuration = 303.
Number of configurations having virial = 0.
Radial descriptor with a cutoff of 7.5 A:
    Minimum number of neighbors for one atom = 0.
    Maximum number of neighbors for one atom = 121.
Angular descriptor with a cutoff of 7.5 A:
    Minimum number of neighbors for one atom = 0.
    Maximum number of neighbors for one atom = 121.
---------------------------------------------------------------


Batch 4:
Number of configurations = 998.

---------------------------------------------------------------
Constructing train_set in device  0.
Total number of atoms = 118598.
Number of atoms in the largest configuration = 303.
Number of configurations having virial = 0.
Radial descriptor with a cutoff of 7.5 A:
    Minimum number of neighbors for one atom = 0.
    Maximum number of neighbors for one atom = 127.
Angular descriptor with a cutoff of 7.5 A:
    Minimum number of neighbors for one atom = 0.
    Maximum number of neighbors for one atom = 127.
---------------------------------------------------------------


---------------------------------------------------------------
Constructing train_set in device  1.
Total number of atoms = 118598.
Number of atoms in the largest configuration = 303.
Number of configurations having virial = 0.
Radial descriptor with a cutoff of 7.5 A:
    Minimum number of neighbors for one atom = 0.
    Maximum number of neighbors for one atom = 127.
Angular descriptor with a cutoff of 7.5 A:
    Minimum number of neighbors for one atom = 0.
    Maximum number of neighbors for one atom = 127.
---------------------------------------------------------------


---------------------------------------------------------------
Constructing train_set in device  2.
Total number of atoms = 118598.
Number of atoms in the largest configuration = 303.
Number of configurations having virial = 0.
Radial descriptor with a cutoff of 7.5 A:
    Minimum number of neighbors for one atom = 0.
    Maximum number of neighbors for one atom = 127.
Angular descriptor with a cutoff of 7.5 A:
    Minimum number of neighbors for one atom = 0.
    Maximum number of neighbors for one atom = 127.
---------------------------------------------------------------


---------------------------------------------------------------
Constructing train_set in device  3.
Total number of atoms = 118598.
Number of atoms in the largest configuration = 303.
Number of configurations having virial = 0.
Radial descriptor with a cutoff of 7.5 A:
    Minimum number of neighbors for one atom = 0.
    Maximum number of neighbors for one atom = 127.
Angular descriptor with a cutoff of 7.5 A:
    Minimum number of neighbors for one atom = 0.
    Maximum number of neighbors for one atom = 127.
---------------------------------------------------------------


---------------------------------------------------------------
Constructing train_set in device  4.
Total number of atoms = 118598.
Number of atoms in the largest configuration = 303.
Number of configurations having virial = 0.
Radial descriptor with a cutoff of 7.5 A:
    Minimum number of neighbors for one atom = 0.
    Maximum number of neighbors for one atom = 127.
Angular descriptor with a cutoff of 7.5 A:
    Minimum number of neighbors for one atom = 0.
    Maximum number of neighbors for one atom = 127.
---------------------------------------------------------------


---------------------------------------------------------------
Constructing train_set in device  5.
Total number of atoms = 118598.
Number of atoms in the largest configuration = 303.
Number of configurations having virial = 0.
Radial descriptor with a cutoff of 7.5 A:
    Minimum number of neighbors for one atom = 0.
    Maximum number of neighbors for one atom = 127.
Angular descriptor with a cutoff of 7.5 A:
    Minimum number of neighbors for one atom = 0.
    Maximum number of neighbors for one atom = 127.
---------------------------------------------------------------


---------------------------------------------------------------
Constructing train_set in device  6.
Total number of atoms = 118598.
Number of atoms in the largest configuration = 303.
Number of configurations having virial = 0.
Radial descriptor with a cutoff of 7.5 A:
    Minimum number of neighbors for one atom = 0.
    Maximum number of neighbors for one atom = 127.
Angular descriptor with a cutoff of 7.5 A:
    Minimum number of neighbors for one atom = 0.
    Maximum number of neighbors for one atom = 127.
---------------------------------------------------------------


---------------------------------------------------------------
Constructing train_set in device  7.
Total number of atoms = 118598.
Number of atoms in the largest configuration = 303.
Number of configurations having virial = 0.
Radial descriptor with a cutoff of 7.5 A:
    Minimum number of neighbors for one atom = 0.
    Maximum number of neighbors for one atom = 127.
Angular descriptor with a cutoff of 7.5 A:
    Minimum number of neighbors for one atom = 0.
    Maximum number of neighbors for one atom = 127.
---------------------------------------------------------------


Batch 5:
Number of configurations = 998.

---------------------------------------------------------------
Constructing train_set in device  0.
Total number of atoms = 124981.
Number of atoms in the largest configuration = 303.
Number of configurations having virial = 0.
Radial descriptor with a cutoff of 7.5 A:
    Minimum number of neighbors for one atom = 0.
    Maximum number of neighbors for one atom = 125.
Angular descriptor with a cutoff of 7.5 A:
    Minimum number of neighbors for one atom = 0.
    Maximum number of neighbors for one atom = 125.
---------------------------------------------------------------


---------------------------------------------------------------
Constructing train_set in device  1.
Total number of atoms = 124981.
Number of atoms in the largest configuration = 303.
Number of configurations having virial = 0.
Radial descriptor with a cutoff of 7.5 A:
    Minimum number of neighbors for one atom = 0.
    Maximum number of neighbors for one atom = 125.
Angular descriptor with a cutoff of 7.5 A:
    Minimum number of neighbors for one atom = 0.
    Maximum number of neighbors for one atom = 125.
---------------------------------------------------------------


---------------------------------------------------------------
Constructing train_set in device  2.
Total number of atoms = 124981.
Number of atoms in the largest configuration = 303.
Number of configurations having virial = 0.
Radial descriptor with a cutoff of 7.5 A:
    Minimum number of neighbors for one atom = 0.
    Maximum number of neighbors for one atom = 125.
Angular descriptor with a cutoff of 7.5 A:
    Minimum number of neighbors for one atom = 0.
    Maximum number of neighbors for one atom = 125.
---------------------------------------------------------------


---------------------------------------------------------------
Constructing train_set in device  3.
Total number of atoms = 124981.
Number of atoms in the largest configuration = 303.
Number of configurations having virial = 0.
Radial descriptor with a cutoff of 7.5 A:
    Minimum number of neighbors for one atom = 0.
    Maximum number of neighbors for one atom = 125.
Angular descriptor with a cutoff of 7.5 A:
    Minimum number of neighbors for one atom = 0.
    Maximum number of neighbors for one atom = 125.
---------------------------------------------------------------


---------------------------------------------------------------
Constructing train_set in device  4.
Total number of atoms = 124981.
Number of atoms in the largest configuration = 303.
Number of configurations having virial = 0.
Radial descriptor with a cutoff of 7.5 A:
    Minimum number of neighbors for one atom = 0.
    Maximum number of neighbors for one atom = 125.
Angular descriptor with a cutoff of 7.5 A:
    Minimum number of neighbors for one atom = 0.
    Maximum number of neighbors for one atom = 125.
---------------------------------------------------------------


---------------------------------------------------------------
Constructing train_set in device  5.
Total number of atoms = 124981.
Number of atoms in the largest configuration = 303.
Number of configurations having virial = 0.
Radial descriptor with a cutoff of 7.5 A:
    Minimum number of neighbors for one atom = 0.
    Maximum number of neighbors for one atom = 125.
Angular descriptor with a cutoff of 7.5 A:
    Minimum number of neighbors for one atom = 0.
    Maximum number of neighbors for one atom = 125.
---------------------------------------------------------------


---------------------------------------------------------------
Constructing train_set in device  6.
Total number of atoms = 124981.
Number of atoms in the largest configuration = 303.
Number of configurations having virial = 0.
Radial descriptor with a cutoff of 7.5 A:
    Minimum number of neighbors for one atom = 0.
    Maximum number of neighbors for one atom = 125.
Angular descriptor with a cutoff of 7.5 A:
    Minimum number of neighbors for one atom = 0.
    Maximum number of neighbors for one atom = 125.
---------------------------------------------------------------


---------------------------------------------------------------
Constructing train_set in device  7.
Total number of atoms = 124981.
Number of atoms in the largest configuration = 303.
Number of configurations having virial = 0.
Radial descriptor with a cutoff of 7.5 A:
    Minimum number of neighbors for one atom = 0.
    Maximum number of neighbors for one atom = 125.
Angular descriptor with a cutoff of 7.5 A:
    Minimum number of neighbors for one atom = 0.
    Maximum number of neighbors for one atom = 125.
---------------------------------------------------------------


Batch 6:
Number of configurations = 998.

---------------------------------------------------------------
Constructing train_set in device  0.
Total number of atoms = 116331.
Number of atoms in the largest configuration = 301.
Number of configurations having virial = 0.
Radial descriptor with a cutoff of 7.5 A:
    Minimum number of neighbors for one atom = 0.
    Maximum number of neighbors for one atom = 122.
Angular descriptor with a cutoff of 7.5 A:
    Minimum number of neighbors for one atom = 0.
    Maximum number of neighbors for one atom = 122.
---------------------------------------------------------------


---------------------------------------------------------------
Constructing train_set in device  1.
Total number of atoms = 116331.
Number of atoms in the largest configuration = 301.
Number of configurations having virial = 0.
Radial descriptor with a cutoff of 7.5 A:
    Minimum number of neighbors for one atom = 0.
    Maximum number of neighbors for one atom = 122.
Angular descriptor with a cutoff of 7.5 A:
    Minimum number of neighbors for one atom = 0.
    Maximum number of neighbors for one atom = 122.
---------------------------------------------------------------


---------------------------------------------------------------
Constructing train_set in device  2.
Total number of atoms = 116331.
Number of atoms in the largest configuration = 301.
Number of configurations having virial = 0.
Radial descriptor with a cutoff of 7.5 A:
    Minimum number of neighbors for one atom = 0.
    Maximum number of neighbors for one atom = 122.
Angular descriptor with a cutoff of 7.5 A:
    Minimum number of neighbors for one atom = 0.
    Maximum number of neighbors for one atom = 122.
---------------------------------------------------------------


---------------------------------------------------------------
Constructing train_set in device  3.
Total number of atoms = 116331.
Number of atoms in the largest configuration = 301.
Number of configurations having virial = 0.
Radial descriptor with a cutoff of 7.5 A:
    Minimum number of neighbors for one atom = 0.
    Maximum number of neighbors for one atom = 122.
Angular descriptor with a cutoff of 7.5 A:
    Minimum number of neighbors for one atom = 0.
    Maximum number of neighbors for one atom = 122.
---------------------------------------------------------------


---------------------------------------------------------------
Constructing train_set in device  4.
Total number of atoms = 116331.
Number of atoms in the largest configuration = 301.
Number of configurations having virial = 0.
Radial descriptor with a cutoff of 7.5 A:
    Minimum number of neighbors for one atom = 0.
    Maximum number of neighbors for one atom = 122.
Angular descriptor with a cutoff of 7.5 A:
    Minimum number of neighbors for one atom = 0.
    Maximum number of neighbors for one atom = 122.
---------------------------------------------------------------


---------------------------------------------------------------
Constructing train_set in device  5.
Total number of atoms = 116331.
Number of atoms in the largest configuration = 301.
Number of configurations having virial = 0.
Radial descriptor with a cutoff of 7.5 A:
    Minimum number of neighbors for one atom = 0.
    Maximum number of neighbors for one atom = 122.
Angular descriptor with a cutoff of 7.5 A:
    Minimum number of neighbors for one atom = 0.
    Maximum number of neighbors for one atom = 122.
---------------------------------------------------------------


---------------------------------------------------------------
Constructing train_set in device  6.
Total number of atoms = 116331.
Number of atoms in the largest configuration = 301.
Number of configurations having virial = 0.
Radial descriptor with a cutoff of 7.5 A:
    Minimum number of neighbors for one atom = 0.
    Maximum number of neighbors for one atom = 122.
Angular descriptor with a cutoff of 7.5 A:
    Minimum number of neighbors for one atom = 0.
    Maximum number of neighbors for one atom = 122.
---------------------------------------------------------------


---------------------------------------------------------------
Constructing train_set in device  7.
Total number of atoms = 116331.
Number of atoms in the largest configuration = 301.
Number of configurations having virial = 0.
Radial descriptor with a cutoff of 7.5 A:
    Minimum number of neighbors for one atom = 0.
    Maximum number of neighbors for one atom = 122.
Angular descriptor with a cutoff of 7.5 A:
    Minimum number of neighbors for one atom = 0.
    Maximum number of neighbors for one atom = 122.
---------------------------------------------------------------


Batch 7:
Number of configurations = 998.

---------------------------------------------------------------
Constructing train_set in device  0.
Total number of atoms = 121241.
Number of atoms in the largest configuration = 302.
Number of configurations having virial = 0.
Radial descriptor with a cutoff of 7.5 A:
    Minimum number of neighbors for one atom = 0.
    Maximum number of neighbors for one atom = 121.
Angular descriptor with a cutoff of 7.5 A:
    Minimum number of neighbors for one atom = 0.
    Maximum number of neighbors for one atom = 121.
---------------------------------------------------------------


---------------------------------------------------------------
Constructing train_set in device  1.
Total number of atoms = 121241.
Number of atoms in the largest configuration = 302.
Number of configurations having virial = 0.
Radial descriptor with a cutoff of 7.5 A:
    Minimum number of neighbors for one atom = 0.
    Maximum number of neighbors for one atom = 121.
Angular descriptor with a cutoff of 7.5 A:
    Minimum number of neighbors for one atom = 0.
    Maximum number of neighbors for one atom = 121.
---------------------------------------------------------------


---------------------------------------------------------------
Constructing train_set in device  2.
Total number of atoms = 121241.
Number of atoms in the largest configuration = 302.
Number of configurations having virial = 0.
Radial descriptor with a cutoff of 7.5 A:
    Minimum number of neighbors for one atom = 0.
    Maximum number of neighbors for one atom = 121.
Angular descriptor with a cutoff of 7.5 A:
    Minimum number of neighbors for one atom = 0.
    Maximum number of neighbors for one atom = 121.
---------------------------------------------------------------


---------------------------------------------------------------
Constructing train_set in device  3.
Total number of atoms = 121241.
Number of atoms in the largest configuration = 302.
Number of configurations having virial = 0.
Radial descriptor with a cutoff of 7.5 A:
    Minimum number of neighbors for one atom = 0.
    Maximum number of neighbors for one atom = 121.
Angular descriptor with a cutoff of 7.5 A:
    Minimum number of neighbors for one atom = 0.
    Maximum number of neighbors for one atom = 121.
---------------------------------------------------------------


---------------------------------------------------------------
Constructing train_set in device  4.
Total number of atoms = 121241.
Number of atoms in the largest configuration = 302.
Number of configurations having virial = 0.
Radial descriptor with a cutoff of 7.5 A:
    Minimum number of neighbors for one atom = 0.
    Maximum number of neighbors for one atom = 121.
Angular descriptor with a cutoff of 7.5 A:
    Minimum number of neighbors for one atom = 0.
    Maximum number of neighbors for one atom = 121.
---------------------------------------------------------------


---------------------------------------------------------------
Constructing train_set in device  5.
Total number of atoms = 121241.
Number of atoms in the largest configuration = 302.
Number of configurations having virial = 0.
Radial descriptor with a cutoff of 7.5 A:
    Minimum number of neighbors for one atom = 0.
    Maximum number of neighbors for one atom = 121.
Angular descriptor with a cutoff of 7.5 A:
    Minimum number of neighbors for one atom = 0.
    Maximum number of neighbors for one atom = 121.
---------------------------------------------------------------


---------------------------------------------------------------
Constructing train_set in device  6.
Total number of atoms = 121241.
Number of atoms in the largest configuration = 302.
Number of configurations having virial = 0.
Radial descriptor with a cutoff of 7.5 A:
    Minimum number of neighbors for one atom = 0.
    Maximum number of neighbors for one atom = 121.
Angular descriptor with a cutoff of 7.5 A:
    Minimum number of neighbors for one atom = 0.
    Maximum number of neighbors for one atom = 121.
---------------------------------------------------------------


---------------------------------------------------------------
Constructing train_set in device  7.
Total number of atoms = 121241.
Number of atoms in the largest configuration = 302.
Number of configurations having virial = 0.
Radial descriptor with a cutoff of 7.5 A:
    Minimum number of neighbors for one atom = 0.
    Maximum number of neighbors for one atom = 121.
Angular descriptor with a cutoff of 7.5 A:
    Minimum number of neighbors for one atom = 0.
    Maximum number of neighbors for one atom = 121.
---------------------------------------------------------------


Batch 8:
Number of configurations = 998.

---------------------------------------------------------------
Constructing train_set in device  0.
Total number of atoms = 123708.
Number of atoms in the largest configuration = 302.
Number of configurations having virial = 0.
Radial descriptor with a cutoff of 7.5 A:
    Minimum number of neighbors for one atom = 0.
    Maximum number of neighbors for one atom = 122.
Angular descriptor with a cutoff of 7.5 A:
    Minimum number of neighbors for one atom = 0.
    Maximum number of neighbors for one atom = 122.
---------------------------------------------------------------


---------------------------------------------------------------
Constructing train_set in device  1.
Total number of atoms = 123708.
Number of atoms in the largest configuration = 302.
Number of configurations having virial = 0.
Radial descriptor with a cutoff of 7.5 A:
    Minimum number of neighbors for one atom = 0.
    Maximum number of neighbors for one atom = 122.
Angular descriptor with a cutoff of 7.5 A:
    Minimum number of neighbors for one atom = 0.
    Maximum number of neighbors for one atom = 122.
---------------------------------------------------------------


---------------------------------------------------------------
Constructing train_set in device  2.
Total number of atoms = 123708.
Number of atoms in the largest configuration = 302.
Number of configurations having virial = 0.
Radial descriptor with a cutoff of 7.5 A:
    Minimum number of neighbors for one atom = 0.
    Maximum number of neighbors for one atom = 122.
Angular descriptor with a cutoff of 7.5 A:
    Minimum number of neighbors for one atom = 0.
    Maximum number of neighbors for one atom = 122.
---------------------------------------------------------------


---------------------------------------------------------------
Constructing train_set in device  3.
Total number of atoms = 123708.
Number of atoms in the largest configuration = 302.
Number of configurations having virial = 0.
Radial descriptor with a cutoff of 7.5 A:
    Minimum number of neighbors for one atom = 0.
    Maximum number of neighbors for one atom = 122.
Angular descriptor with a cutoff of 7.5 A:
    Minimum number of neighbors for one atom = 0.
    Maximum number of neighbors for one atom = 122.
---------------------------------------------------------------


---------------------------------------------------------------
Constructing train_set in device  4.
Total number of atoms = 123708.
Number of atoms in the largest configuration = 302.
Number of configurations having virial = 0.
Radial descriptor with a cutoff of 7.5 A:
    Minimum number of neighbors for one atom = 0.
    Maximum number of neighbors for one atom = 122.
Angular descriptor with a cutoff of 7.5 A:
    Minimum number of neighbors for one atom = 0.
    Maximum number of neighbors for one atom = 122.
---------------------------------------------------------------


---------------------------------------------------------------
Constructing train_set in device  5.
Total number of atoms = 123708.
Number of atoms in the largest configuration = 302.
Number of configurations having virial = 0.
Radial descriptor with a cutoff of 7.5 A:
    Minimum number of neighbors for one atom = 0.
    Maximum number of neighbors for one atom = 122.
Angular descriptor with a cutoff of 7.5 A:
    Minimum number of neighbors for one atom = 0.
    Maximum number of neighbors for one atom = 122.
---------------------------------------------------------------


---------------------------------------------------------------
Constructing train_set in device  6.
Total number of atoms = 123708.
Number of atoms in the largest configuration = 302.
Number of configurations having virial = 0.
Radial descriptor with a cutoff of 7.5 A:
    Minimum number of neighbors for one atom = 0.
    Maximum number of neighbors for one atom = 122.
Angular descriptor with a cutoff of 7.5 A:
    Minimum number of neighbors for one atom = 0.
    Maximum number of neighbors for one atom = 122.
---------------------------------------------------------------


---------------------------------------------------------------
Constructing train_set in device  7.
Total number of atoms = 123708.
Number of atoms in the largest configuration = 302.
Number of configurations having virial = 0.
Radial descriptor with a cutoff of 7.5 A:
    Minimum number of neighbors for one atom = 0.
    Maximum number of neighbors for one atom = 122.
Angular descriptor with a cutoff of 7.5 A:
    Minimum number of neighbors for one atom = 0.
    Maximum number of neighbors for one atom = 122.
---------------------------------------------------------------


Batch 9:
Number of configurations = 998.

---------------------------------------------------------------
Constructing train_set in device  0.
Total number of atoms = 122630.
Number of atoms in the largest configuration = 303.
Number of configurations having virial = 0.
Radial descriptor with a cutoff of 7.5 A:
    Minimum number of neighbors for one atom = 0.
    Maximum number of neighbors for one atom = 122.
Angular descriptor with a cutoff of 7.5 A:
    Minimum number of neighbors for one atom = 0.
    Maximum number of neighbors for one atom = 122.
---------------------------------------------------------------


---------------------------------------------------------------
Constructing train_set in device  1.
Total number of atoms = 122630.
Number of atoms in the largest configuration = 303.
Number of configurations having virial = 0.
Radial descriptor with a cutoff of 7.5 A:
    Minimum number of neighbors for one atom = 0.
    Maximum number of neighbors for one atom = 122.
Angular descriptor with a cutoff of 7.5 A:
    Minimum number of neighbors for one atom = 0.
    Maximum number of neighbors for one atom = 122.
---------------------------------------------------------------


---------------------------------------------------------------
Constructing train_set in device  2.
Total number of atoms = 122630.
Number of atoms in the largest configuration = 303.
Number of configurations having virial = 0.
Radial descriptor with a cutoff of 7.5 A:
    Minimum number of neighbors for one atom = 0.
    Maximum number of neighbors for one atom = 122.
Angular descriptor with a cutoff of 7.5 A:
    Minimum number of neighbors for one atom = 0.
    Maximum number of neighbors for one atom = 122.
---------------------------------------------------------------


---------------------------------------------------------------
Constructing train_set in device  3.
Total number of atoms = 122630.
Number of atoms in the largest configuration = 303.
Number of configurations having virial = 0.
Radial descriptor with a cutoff of 7.5 A:
    Minimum number of neighbors for one atom = 0.
    Maximum number of neighbors for one atom = 122.
Angular descriptor with a cutoff of 7.5 A:
    Minimum number of neighbors for one atom = 0.
    Maximum number of neighbors for one atom = 122.
---------------------------------------------------------------


---------------------------------------------------------------
Constructing train_set in device  4.
Total number of atoms = 122630.
Number of atoms in the largest configuration = 303.
Number of configurations having virial = 0.
Radial descriptor with a cutoff of 7.5 A:
    Minimum number of neighbors for one atom = 0.
    Maximum number of neighbors for one atom = 122.
Angular descriptor with a cutoff of 7.5 A:
    Minimum number of neighbors for one atom = 0.
    Maximum number of neighbors for one atom = 122.
---------------------------------------------------------------


---------------------------------------------------------------
Constructing train_set in device  5.
Total number of atoms = 122630.
Number of atoms in the largest configuration = 303.
Number of configurations having virial = 0.
Radial descriptor with a cutoff of 7.5 A:
    Minimum number of neighbors for one atom = 0.
    Maximum number of neighbors for one atom = 122.
Angular descriptor with a cutoff of 7.5 A:
    Minimum number of neighbors for one atom = 0.
    Maximum number of neighbors for one atom = 122.
---------------------------------------------------------------


---------------------------------------------------------------
Constructing train_set in device  6.
Total number of atoms = 122630.
Number of atoms in the largest configuration = 303.
Number of configurations having virial = 0.
Radial descriptor with a cutoff of 7.5 A:
    Minimum number of neighbors for one atom = 0.
    Maximum number of neighbors for one atom = 122.
Angular descriptor with a cutoff of 7.5 A:
    Minimum number of neighbors for one atom = 0.
    Maximum number of neighbors for one atom = 122.
---------------------------------------------------------------


---------------------------------------------------------------
Constructing train_set in device  7.
Total number of atoms = 122630.
Number of atoms in the largest configuration = 303.
Number of configurations having virial = 0.
Radial descriptor with a cutoff of 7.5 A:
    Minimum number of neighbors for one atom = 0.
    Maximum number of neighbors for one atom = 122.
Angular descriptor with a cutoff of 7.5 A:
    Minimum number of neighbors for one atom = 0.
    Maximum number of neighbors for one atom = 122.
---------------------------------------------------------------


Batch 10:
Number of configurations = 998.

---------------------------------------------------------------
Constructing train_set in device  0.
Total number of atoms = 121956.
Number of atoms in the largest configuration = 303.
Number of configurations having virial = 0.
Radial descriptor with a cutoff of 7.5 A:
    Minimum number of neighbors for one atom = 0.
    Maximum number of neighbors for one atom = 121.
Angular descriptor with a cutoff of 7.5 A:
    Minimum number of neighbors for one atom = 0.
    Maximum number of neighbors for one atom = 121.
---------------------------------------------------------------


---------------------------------------------------------------
Constructing train_set in device  1.
Total number of atoms = 121956.
Number of atoms in the largest configuration = 303.
Number of configurations having virial = 0.
Radial descriptor with a cutoff of 7.5 A:
    Minimum number of neighbors for one atom = 0.
    Maximum number of neighbors for one atom = 121.
Angular descriptor with a cutoff of 7.5 A:
    Minimum number of neighbors for one atom = 0.
    Maximum number of neighbors for one atom = 121.
---------------------------------------------------------------


---------------------------------------------------------------
Constructing train_set in device  2.
Total number of atoms = 121956.
Number of atoms in the largest configuration = 303.
Number of configurations having virial = 0.
Radial descriptor with a cutoff of 7.5 A:
    Minimum number of neighbors for one atom = 0.
    Maximum number of neighbors for one atom = 121.
Angular descriptor with a cutoff of 7.5 A:
    Minimum number of neighbors for one atom = 0.
    Maximum number of neighbors for one atom = 121.
---------------------------------------------------------------


---------------------------------------------------------------
Constructing train_set in device  3.
Total number of atoms = 121956.
Number of atoms in the largest configuration = 303.
Number of configurations having virial = 0.
Radial descriptor with a cutoff of 7.5 A:
    Minimum number of neighbors for one atom = 0.
    Maximum number of neighbors for one atom = 121.
Angular descriptor with a cutoff of 7.5 A:
    Minimum number of neighbors for one atom = 0.
    Maximum number of neighbors for one atom = 121.
---------------------------------------------------------------


---------------------------------------------------------------
Constructing train_set in device  4.
Total number of atoms = 121956.
Number of atoms in the largest configuration = 303.
Number of configurations having virial = 0.
Radial descriptor with a cutoff of 7.5 A:
    Minimum number of neighbors for one atom = 0.
    Maximum number of neighbors for one atom = 121.
Angular descriptor with a cutoff of 7.5 A:
    Minimum number of neighbors for one atom = 0.
    Maximum number of neighbors for one atom = 121.
---------------------------------------------------------------


---------------------------------------------------------------
Constructing train_set in device  5.
Total number of atoms = 121956.
Number of atoms in the largest configuration = 303.
Number of configurations having virial = 0.
Radial descriptor with a cutoff of 7.5 A:
    Minimum number of neighbors for one atom = 0.
    Maximum number of neighbors for one atom = 121.
Angular descriptor with a cutoff of 7.5 A:
    Minimum number of neighbors for one atom = 0.
    Maximum number of neighbors for one atom = 121.
---------------------------------------------------------------


---------------------------------------------------------------
Constructing train_set in device  6.
Total number of atoms = 121956.
Number of atoms in the largest configuration = 303.
Number of configurations having virial = 0.
Radial descriptor with a cutoff of 7.5 A:
    Minimum number of neighbors for one atom = 0.
    Maximum number of neighbors for one atom = 121.
Angular descriptor with a cutoff of 7.5 A:
    Minimum number of neighbors for one atom = 0.
    Maximum number of neighbors for one atom = 121.
---------------------------------------------------------------


---------------------------------------------------------------
Constructing train_set in device  7.
Total number of atoms = 121956.
Number of atoms in the largest configuration = 303.
Number of configurations having virial = 0.
Radial descriptor with a cutoff of 7.5 A:
    Minimum number of neighbors for one atom = 0.
    Maximum number of neighbors for one atom = 121.
Angular descriptor with a cutoff of 7.5 A:
    Minimum number of neighbors for one atom = 0.
    Maximum number of neighbors for one atom = 121.
---------------------------------------------------------------


Batch 11:
Number of configurations = 998.

---------------------------------------------------------------
Constructing train_set in device  0.
Total number of atoms = 119769.
Number of atoms in the largest configuration = 303.
Number of configurations having virial = 0.
Radial descriptor with a cutoff of 7.5 A:
    Minimum number of neighbors for one atom = 0.
    Maximum number of neighbors for one atom = 122.
Angular descriptor with a cutoff of 7.5 A:
    Minimum number of neighbors for one atom = 0.
    Maximum number of neighbors for one atom = 122.
---------------------------------------------------------------


---------------------------------------------------------------
Constructing train_set in device  1.
Total number of atoms = 119769.
Number of atoms in the largest configuration = 303.
Number of configurations having virial = 0.
Radial descriptor with a cutoff of 7.5 A:
    Minimum number of neighbors for one atom = 0.
    Maximum number of neighbors for one atom = 122.
Angular descriptor with a cutoff of 7.5 A:
    Minimum number of neighbors for one atom = 0.
    Maximum number of neighbors for one atom = 122.
---------------------------------------------------------------


---------------------------------------------------------------
Constructing train_set in device  2.
Total number of atoms = 119769.
Number of atoms in the largest configuration = 303.
Number of configurations having virial = 0.
Radial descriptor with a cutoff of 7.5 A:
    Minimum number of neighbors for one atom = 0.
    Maximum number of neighbors for one atom = 122.
Angular descriptor with a cutoff of 7.5 A:
    Minimum number of neighbors for one atom = 0.
    Maximum number of neighbors for one atom = 122.
---------------------------------------------------------------


---------------------------------------------------------------
Constructing train_set in device  3.
Total number of atoms = 119769.
Number of atoms in the largest configuration = 303.
Number of configurations having virial = 0.
Radial descriptor with a cutoff of 7.5 A:
    Minimum number of neighbors for one atom = 0.
    Maximum number of neighbors for one atom = 122.
Angular descriptor with a cutoff of 7.5 A:
    Minimum number of neighbors for one atom = 0.
    Maximum number of neighbors for one atom = 122.
---------------------------------------------------------------


---------------------------------------------------------------
Constructing train_set in device  4.
Total number of atoms = 119769.
Number of atoms in the largest configuration = 303.
Number of configurations having virial = 0.
Radial descriptor with a cutoff of 7.5 A:
    Minimum number of neighbors for one atom = 0.
    Maximum number of neighbors for one atom = 122.
Angular descriptor with a cutoff of 7.5 A:
    Minimum number of neighbors for one atom = 0.
    Maximum number of neighbors for one atom = 122.
---------------------------------------------------------------


---------------------------------------------------------------
Constructing train_set in device  5.
Total number of atoms = 119769.
Number of atoms in the largest configuration = 303.
Number of configurations having virial = 0.
Radial descriptor with a cutoff of 7.5 A:
    Minimum number of neighbors for one atom = 0.
    Maximum number of neighbors for one atom = 122.
Angular descriptor with a cutoff of 7.5 A:
    Minimum number of neighbors for one atom = 0.
    Maximum number of neighbors for one atom = 122.
---------------------------------------------------------------


---------------------------------------------------------------
Constructing train_set in device  6.
Total number of atoms = 119769.
Number of atoms in the largest configuration = 303.
Number of configurations having virial = 0.
Radial descriptor with a cutoff of 7.5 A:
    Minimum number of neighbors for one atom = 0.
    Maximum number of neighbors for one atom = 122.
Angular descriptor with a cutoff of 7.5 A:
    Minimum number of neighbors for one atom = 0.
    Maximum number of neighbors for one atom = 122.
---------------------------------------------------------------


---------------------------------------------------------------
Constructing train_set in device  7.
Total number of atoms = 119769.
Number of atoms in the largest configuration = 303.
Number of configurations having virial = 0.
Radial descriptor with a cutoff of 7.5 A:
    Minimum number of neighbors for one atom = 0.
    Maximum number of neighbors for one atom = 122.
Angular descriptor with a cutoff of 7.5 A:
    Minimum number of neighbors for one atom = 0.
    Maximum number of neighbors for one atom = 122.
---------------------------------------------------------------


Batch 12:
Number of configurations = 998.

---------------------------------------------------------------
Constructing train_set in device  0.
Total number of atoms = 122681.
Number of atoms in the largest configuration = 303.
Number of configurations having virial = 0.
Radial descriptor with a cutoff of 7.5 A:
    Minimum number of neighbors for one atom = 0.
    Maximum number of neighbors for one atom = 122.
Angular descriptor with a cutoff of 7.5 A:
    Minimum number of neighbors for one atom = 0.
    Maximum number of neighbors for one atom = 122.
---------------------------------------------------------------


---------------------------------------------------------------
Constructing train_set in device  1.
Total number of atoms = 122681.
Number of atoms in the largest configuration = 303.
Number of configurations having virial = 0.
Radial descriptor with a cutoff of 7.5 A:
    Minimum number of neighbors for one atom = 0.
    Maximum number of neighbors for one atom = 122.
Angular descriptor with a cutoff of 7.5 A:
    Minimum number of neighbors for one atom = 0.
    Maximum number of neighbors for one atom = 122.
---------------------------------------------------------------


---------------------------------------------------------------
Constructing train_set in device  2.
Total number of atoms = 122681.
Number of atoms in the largest configuration = 303.
Number of configurations having virial = 0.
Radial descriptor with a cutoff of 7.5 A:
    Minimum number of neighbors for one atom = 0.
    Maximum number of neighbors for one atom = 122.
Angular descriptor with a cutoff of 7.5 A:
    Minimum number of neighbors for one atom = 0.
    Maximum number of neighbors for one atom = 122.
---------------------------------------------------------------


---------------------------------------------------------------
Constructing train_set in device  3.
Total number of atoms = 122681.
Number of atoms in the largest configuration = 303.
Number of configurations having virial = 0.
Radial descriptor with a cutoff of 7.5 A:
    Minimum number of neighbors for one atom = 0.
    Maximum number of neighbors for one atom = 122.
Angular descriptor with a cutoff of 7.5 A:
    Minimum number of neighbors for one atom = 0.
    Maximum number of neighbors for one atom = 122.
---------------------------------------------------------------


---------------------------------------------------------------
Constructing train_set in device  4.
Total number of atoms = 122681.
Number of atoms in the largest configuration = 303.
Number of configurations having virial = 0.
Radial descriptor with a cutoff of 7.5 A:
    Minimum number of neighbors for one atom = 0.
    Maximum number of neighbors for one atom = 122.
Angular descriptor with a cutoff of 7.5 A:
    Minimum number of neighbors for one atom = 0.
    Maximum number of neighbors for one atom = 122.
---------------------------------------------------------------


---------------------------------------------------------------
Constructing train_set in device  5.
Total number of atoms = 122681.
Number of atoms in the largest configuration = 303.
Number of configurations having virial = 0.
Radial descriptor with a cutoff of 7.5 A:
    Minimum number of neighbors for one atom = 0.
    Maximum number of neighbors for one atom = 122.
Angular descriptor with a cutoff of 7.5 A:
    Minimum number of neighbors for one atom = 0.
    Maximum number of neighbors for one atom = 122.
---------------------------------------------------------------


---------------------------------------------------------------
Constructing train_set in device  6.
Total number of atoms = 122681.
Number of atoms in the largest configuration = 303.
Number of configurations having virial = 0.
Radial descriptor with a cutoff of 7.5 A:
    Minimum number of neighbors for one atom = 0.
    Maximum number of neighbors for one atom = 122.
Angular descriptor with a cutoff of 7.5 A:
    Minimum number of neighbors for one atom = 0.
    Maximum number of neighbors for one atom = 122.
---------------------------------------------------------------


---------------------------------------------------------------
Constructing train_set in device  7.
Total number of atoms = 122681.
Number of atoms in the largest configuration = 303.
Number of configurations having virial = 0.
Radial descriptor with a cutoff of 7.5 A:
    Minimum number of neighbors for one atom = 0.
    Maximum number of neighbors for one atom = 122.
Angular descriptor with a cutoff of 7.5 A:
    Minimum number of neighbors for one atom = 0.
    Maximum number of neighbors for one atom = 122.
---------------------------------------------------------------


Batch 13:
Number of configurations = 998.

---------------------------------------------------------------
Constructing train_set in device  0.
Total number of atoms = 120912.
Number of atoms in the largest configuration = 302.
Number of configurations having virial = 0.
Radial descriptor with a cutoff of 7.5 A:
    Minimum number of neighbors for one atom = 0.
    Maximum number of neighbors for one atom = 122.
Angular descriptor with a cutoff of 7.5 A:
    Minimum number of neighbors for one atom = 0.
    Maximum number of neighbors for one atom = 122.
---------------------------------------------------------------


---------------------------------------------------------------
Constructing train_set in device  1.
Total number of atoms = 120912.
Number of atoms in the largest configuration = 302.
Number of configurations having virial = 0.
Radial descriptor with a cutoff of 7.5 A:
    Minimum number of neighbors for one atom = 0.
    Maximum number of neighbors for one atom = 122.
Angular descriptor with a cutoff of 7.5 A:
    Minimum number of neighbors for one atom = 0.
    Maximum number of neighbors for one atom = 122.
---------------------------------------------------------------


---------------------------------------------------------------
Constructing train_set in device  2.
Total number of atoms = 120912.
Number of atoms in the largest configuration = 302.
Number of configurations having virial = 0.
Radial descriptor with a cutoff of 7.5 A:
    Minimum number of neighbors for one atom = 0.
    Maximum number of neighbors for one atom = 122.
Angular descriptor with a cutoff of 7.5 A:
    Minimum number of neighbors for one atom = 0.
    Maximum number of neighbors for one atom = 122.
---------------------------------------------------------------


---------------------------------------------------------------
Constructing train_set in device  3.
Total number of atoms = 120912.
Number of atoms in the largest configuration = 302.
Number of configurations having virial = 0.
Radial descriptor with a cutoff of 7.5 A:
    Minimum number of neighbors for one atom = 0.
    Maximum number of neighbors for one atom = 122.
Angular descriptor with a cutoff of 7.5 A:
    Minimum number of neighbors for one atom = 0.
    Maximum number of neighbors for one atom = 122.
---------------------------------------------------------------


---------------------------------------------------------------
Constructing train_set in device  4.
Total number of atoms = 120912.
Number of atoms in the largest configuration = 302.
Number of configurations having virial = 0.
Radial descriptor with a cutoff of 7.5 A:
    Minimum number of neighbors for one atom = 0.
    Maximum number of neighbors for one atom = 122.
Angular descriptor with a cutoff of 7.5 A:
    Minimum number of neighbors for one atom = 0.
    Maximum number of neighbors for one atom = 122.
---------------------------------------------------------------


---------------------------------------------------------------
Constructing train_set in device  5.
Total number of atoms = 120912.
Number of atoms in the largest configuration = 302.
Number of configurations having virial = 0.
Radial descriptor with a cutoff of 7.5 A:
    Minimum number of neighbors for one atom = 0.
    Maximum number of neighbors for one atom = 122.
Angular descriptor with a cutoff of 7.5 A:
    Minimum number of neighbors for one atom = 0.
    Maximum number of neighbors for one atom = 122.
---------------------------------------------------------------


---------------------------------------------------------------
Constructing train_set in device  6.
Total number of atoms = 120912.
Number of atoms in the largest configuration = 302.
Number of configurations having virial = 0.
Radial descriptor with a cutoff of 7.5 A:
    Minimum number of neighbors for one atom = 0.
    Maximum number of neighbors for one atom = 122.
Angular descriptor with a cutoff of 7.5 A:
    Minimum number of neighbors for one atom = 0.
    Maximum number of neighbors for one atom = 122.
---------------------------------------------------------------


---------------------------------------------------------------
Constructing train_set in device  7.
Total number of atoms = 120912.
Number of atoms in the largest configuration = 302.
Number of configurations having virial = 0.
Radial descriptor with a cutoff of 7.5 A:
    Minimum number of neighbors for one atom = 0.
    Maximum number of neighbors for one atom = 122.
Angular descriptor with a cutoff of 7.5 A:
    Minimum number of neighbors for one atom = 0.
    Maximum number of neighbors for one atom = 122.
---------------------------------------------------------------


Batch 14:
Number of configurations = 998.

---------------------------------------------------------------
Constructing train_set in device  0.
Total number of atoms = 120136.
Number of atoms in the largest configuration = 303.
Number of configurations having virial = 0.
Radial descriptor with a cutoff of 7.5 A:
    Minimum number of neighbors for one atom = 0.
    Maximum number of neighbors for one atom = 121.
Angular descriptor with a cutoff of 7.5 A:
    Minimum number of neighbors for one atom = 0.
    Maximum number of neighbors for one atom = 121.
---------------------------------------------------------------


---------------------------------------------------------------
Constructing train_set in device  1.
Total number of atoms = 120136.
Number of atoms in the largest configuration = 303.
Number of configurations having virial = 0.
Radial descriptor with a cutoff of 7.5 A:
    Minimum number of neighbors for one atom = 0.
    Maximum number of neighbors for one atom = 121.
Angular descriptor with a cutoff of 7.5 A:
    Minimum number of neighbors for one atom = 0.
    Maximum number of neighbors for one atom = 121.
---------------------------------------------------------------


---------------------------------------------------------------
Constructing train_set in device  2.
Total number of atoms = 120136.
Number of atoms in the largest configuration = 303.
Number of configurations having virial = 0.
Radial descriptor with a cutoff of 7.5 A:
    Minimum number of neighbors for one atom = 0.
    Maximum number of neighbors for one atom = 121.
Angular descriptor with a cutoff of 7.5 A:
    Minimum number of neighbors for one atom = 0.
    Maximum number of neighbors for one atom = 121.
---------------------------------------------------------------


---------------------------------------------------------------
Constructing train_set in device  3.
Total number of atoms = 120136.
Number of atoms in the largest configuration = 303.
Number of configurations having virial = 0.
Radial descriptor with a cutoff of 7.5 A:
    Minimum number of neighbors for one atom = 0.
    Maximum number of neighbors for one atom = 121.
Angular descriptor with a cutoff of 7.5 A:
    Minimum number of neighbors for one atom = 0.
    Maximum number of neighbors for one atom = 121.
---------------------------------------------------------------


---------------------------------------------------------------
Constructing train_set in device  4.
Total number of atoms = 120136.
Number of atoms in the largest configuration = 303.
Number of configurations having virial = 0.
Radial descriptor with a cutoff of 7.5 A:
    Minimum number of neighbors for one atom = 0.
    Maximum number of neighbors for one atom = 121.
Angular descriptor with a cutoff of 7.5 A:
    Minimum number of neighbors for one atom = 0.
    Maximum number of neighbors for one atom = 121.
---------------------------------------------------------------


---------------------------------------------------------------
Constructing train_set in device  5.
Total number of atoms = 120136.
Number of atoms in the largest configuration = 303.
Number of configurations having virial = 0.
Radial descriptor with a cutoff of 7.5 A:
    Minimum number of neighbors for one atom = 0.
    Maximum number of neighbors for one atom = 121.
Angular descriptor with a cutoff of 7.5 A:
    Minimum number of neighbors for one atom = 0.
    Maximum number of neighbors for one atom = 121.
---------------------------------------------------------------


---------------------------------------------------------------
Constructing train_set in device  6.
Total number of atoms = 120136.
Number of atoms in the largest configuration = 303.
Number of configurations having virial = 0.
Radial descriptor with a cutoff of 7.5 A:
    Minimum number of neighbors for one atom = 0.
    Maximum number of neighbors for one atom = 121.
Angular descriptor with a cutoff of 7.5 A:
    Minimum number of neighbors for one atom = 0.
    Maximum number of neighbors for one atom = 121.
---------------------------------------------------------------


---------------------------------------------------------------
Constructing train_set in device  7.
Total number of atoms = 120136.
Number of atoms in the largest configuration = 303.
Number of configurations having virial = 0.
Radial descriptor with a cutoff of 7.5 A:
    Minimum number of neighbors for one atom = 0.
    Maximum number of neighbors for one atom = 121.
Angular descriptor with a cutoff of 7.5 A:
    Minimum number of neighbors for one atom = 0.
    Maximum number of neighbors for one atom = 121.
---------------------------------------------------------------


Batch 15:
Number of configurations = 998.

---------------------------------------------------------------
Constructing train_set in device  0.
Total number of atoms = 119705.
Number of atoms in the largest configuration = 303.
Number of configurations having virial = 0.
Radial descriptor with a cutoff of 7.5 A:
    Minimum number of neighbors for one atom = 0.
    Maximum number of neighbors for one atom = 120.
Angular descriptor with a cutoff of 7.5 A:
    Minimum number of neighbors for one atom = 0.
    Maximum number of neighbors for one atom = 120.
---------------------------------------------------------------


---------------------------------------------------------------
Constructing train_set in device  1.
Total number of atoms = 119705.
Number of atoms in the largest configuration = 303.
Number of configurations having virial = 0.
Radial descriptor with a cutoff of 7.5 A:
    Minimum number of neighbors for one atom = 0.
    Maximum number of neighbors for one atom = 120.
Angular descriptor with a cutoff of 7.5 A:
    Minimum number of neighbors for one atom = 0.
    Maximum number of neighbors for one atom = 120.
---------------------------------------------------------------


---------------------------------------------------------------
Constructing train_set in device  2.
Total number of atoms = 119705.
Number of atoms in the largest configuration = 303.
Number of configurations having virial = 0.
Radial descriptor with a cutoff of 7.5 A:
    Minimum number of neighbors for one atom = 0.
    Maximum number of neighbors for one atom = 120.
Angular descriptor with a cutoff of 7.5 A:
    Minimum number of neighbors for one atom = 0.
    Maximum number of neighbors for one atom = 120.
---------------------------------------------------------------


---------------------------------------------------------------
Constructing train_set in device  3.
Total number of atoms = 119705.
Number of atoms in the largest configuration = 303.
Number of configurations having virial = 0.
Radial descriptor with a cutoff of 7.5 A:
    Minimum number of neighbors for one atom = 0.
    Maximum number of neighbors for one atom = 120.
Angular descriptor with a cutoff of 7.5 A:
    Minimum number of neighbors for one atom = 0.
    Maximum number of neighbors for one atom = 120.
---------------------------------------------------------------


---------------------------------------------------------------
Constructing train_set in device  4.
Total number of atoms = 119705.
Number of atoms in the largest configuration = 303.
Number of configurations having virial = 0.
Radial descriptor with a cutoff of 7.5 A:
    Minimum number of neighbors for one atom = 0.
    Maximum number of neighbors for one atom = 120.
Angular descriptor with a cutoff of 7.5 A:
    Minimum number of neighbors for one atom = 0.
    Maximum number of neighbors for one atom = 120.
---------------------------------------------------------------


---------------------------------------------------------------
Constructing train_set in device  5.
Total number of atoms = 119705.
Number of atoms in the largest configuration = 303.
Number of configurations having virial = 0.
Radial descriptor with a cutoff of 7.5 A:
    Minimum number of neighbors for one atom = 0.
    Maximum number of neighbors for one atom = 120.
Angular descriptor with a cutoff of 7.5 A:
    Minimum number of neighbors for one atom = 0.
    Maximum number of neighbors for one atom = 120.
[...]
83800   0.14323    0.03228    0.04476    0.01026      0.07240      0.00000      0.00212      0.11895      0.00000      
83900   0.14371    0.03235    0.04486    0.00865      0.07293      0.00000      0.00209      0.11641      0.00000      
84000   0.13932    0.03137    0.04352    0.00735      0.07077      0.00000      0.00051      0.12147      0.00000      
84100   0.14132    0.03183    0.04412    0.00819      0.07172      0.00000      0.00456      0.12354      0.00000      
84200   0.14394    0.03246    0.04492    0.00854      0.07301      0.00000      0.00098      0.11677      0.00000      
84300   0.14079    0.03167    0.04393    0.00658      0.07169      0.00000      0.00252      0.10844      0.00000      
84400   0.14022    0.03151    0.04374    0.01098      0.07097      0.00000      0.00011      0.11904      0.00000      
84500   0.14170    0.03182    0.04417    0.00976      0.07192      0.00000      0.00087      0.11912      0.00000      
84600   0.13905    0.03129    0.04337    0.00816      0.07062      0.00000      0.00283      0.11901      0.00000      
84700   0.14121    0.03175    0.04404    0.00886      0.07170      0.00000      0.00242      0.11642      0.00000      
84800   0.14495    0.03260    0.04516    0.00885      0.07367      0.00000      0.00631      0.12185      0.00000      
84900   0.14033    0.03154    0.04371    0.00882      0.07133      0.00000      0.00025      0.11122      0.00000      
85000   0.14351    0.03221    0.04469    0.00891      0.07303      0.00000      0.00294      0.11642      0.00000      
85100   0.14298    0.03208    0.04452    0.00862      0.07280      0.00000      0.00409      0.11190      0.00000      
85200   0.14160    0.03174    0.04405    0.00940      0.07207      0.00000      0.00067      0.11930      0.00000      
85300   0.14250    0.03192    0.04439    0.00785      0.07267      0.00000      0.00191      0.11918      0.00000      
85400   0.13807    0.03096    0.04298    0.00713      0.07045      0.00000      0.00421      0.12699      0.00000      
85500   0.13991    0.03133    0.04350    0.00885      0.07133      0.00000      0.00046      0.11438      0.00000      
85600   0.14189    0.03174    0.04409    0.00775      0.07254      0.00000      0.00310      0.11874      0.00000      
85700   0.13918    0.03104    0.04322    0.00700      0.07135      0.00000      0.01027      0.11959      0.00000      
85800   0.13893    0.03100    0.04315    0.01198      0.07064      0.00000      0.00468      0.12776      0.00000      
85900   0.14014    0.03132    0.04355    0.00933      0.07148      0.00000      0.00064      0.11563      0.00000      
86000   0.13760    0.03078    0.04277    0.00731      0.07036      0.00000      0.00053      0.12262      0.00000      
86100   0.13992    0.03123    0.04344    0.00841      0.07156      0.00000      0.00546      0.11579      0.00000      
86200   0.14368    0.03215    0.04465    0.00866      0.07335      0.00000      0.00581      0.12574      0.00000      
86300   0.13931    0.03111    0.04330    0.00854      0.07116      0.00000      0.00712      0.11651      0.00000      
86400   0.14256    0.03189    0.04428    0.00884      0.07278      0.00000      0.00312      0.12309      0.00000      
86500   0.14205    0.03176    0.04413    0.00842      0.07258      0.00000      0.00655      0.12297      0.00000      
86600   0.14079    0.03138    0.04368    0.01026      0.07189      0.00000      0.00098      0.12408      0.00000      
86700   0.14192    0.03169    0.04409    0.00922      0.07246      0.00000      0.00104      0.12487      0.00000      
86800   0.13749    0.03066    0.04268    0.00732      0.07046      0.00000      0.00134      0.13314      0.00000      
86900   0.13900    0.03102    0.04318    0.00763      0.07116      0.00000      0.00159      0.12523      0.00000      
87000   0.14153    0.03156    0.04393    0.00719      0.07259      0.00000      0.00749      0.12395      0.00000      
87100   0.13861    0.03093    0.04306    0.00646      0.07108      0.00000      0.00385      0.13726      0.00000      
87200   0.13820    0.03081    0.04290    0.01119      0.07042      0.00000      0.00291      0.12386      0.00000      
87300   0.13976    0.03112    0.04336    0.00972      0.07145      0.00000      0.00397      0.13049      0.00000      
87400   0.13772    0.03072    0.04272    0.00836      0.07049      0.00000      0.00861      0.12239      0.00000      
87500   0.13961    0.03110    0.04329    0.00852      0.07152      0.00000      0.00416      0.11703      0.00000      
87600   0.14364    0.03201    0.04453    0.00818      0.07365      0.00000      0.00017      0.11686      0.00000      
87700   0.13904    0.03099    0.04310    0.00769      0.07131      0.00000      0.00254      0.12292      0.00000      
87800   0.14168    0.03157    0.04390    0.00912      0.07255      0.00000      0.00054      0.12388      0.00000      
87900   0.14108    0.03136    0.04366    0.00809      0.07249      0.00000      0.00057      0.12965      0.00000      
88000   0.13955    0.03107    0.04321    0.00810      0.07162      0.00000      0.00282      0.10714      0.00000      
88100   0.14075    0.03132    0.04353    0.00810      0.07233      0.00000      0.00018      0.11715      0.00000      
88200   0.13633    0.03031    0.04216    0.00736      0.07014      0.00000      0.00076      0.11675      0.00000      
88300   0.13835    0.03073    0.04276    0.00770      0.07122      0.00000      0.00477      0.11836      0.00000      
88400   0.14034    0.03114    0.04338    0.00715      0.07233      0.00000      0.00482      0.11067      0.00000      
88500   0.13704    0.03034    0.04233    0.00637      0.07080      0.00000      0.00102      0.11460      0.00000      
88600   0.13693    0.03030    0.04230    0.01179      0.07017      0.00000      0.00126      0.11511      0.00000      
88700   0.13859    0.03070    0.04283    0.00932      0.07125      0.00000      0.00068      0.12036      0.00000      
88800   0.13582    0.03008    0.04194    0.00765      0.07003      0.00000      0.00463      0.11879      0.00000      
88900   0.13759    0.03043    0.04249    0.00789      0.07098      0.00000      0.00334      0.11262      0.00000      
89000   0.14158    0.03132    0.04374    0.00788      0.07304      0.00000      0.00148      0.11412      0.00000      
89100   0.13728    0.03033    0.04238    0.00739      0.07093      0.00000      0.00499      0.10874      0.00000      
89200   0.13993    0.03093    0.04316    0.00933      0.07211      0.00000      0.00374      0.12435      0.00000      
89300   0.13986    0.03085    0.04313    0.00939      0.07215      0.00000      0.00185      0.12140      0.00000      
89400   0.13783    0.03043    0.04248    0.00848      0.07119      0.00000      0.00168      0.11848      0.00000      
89500   0.13962    0.03079    0.04302    0.00946      0.07207      0.00000      0.00598      0.11597      0.00000      
89600   0.13495    0.02971    0.04157    0.00710      0.06997      0.00000      0.00157      0.11865      0.00000      
89700   0.13673    0.03006    0.04211    0.00701      0.07096      0.00000      0.00184      0.11430      0.00000      
89800   0.13898    0.03053    0.04278    0.00717      0.07218      0.00000      0.00108      0.11195      0.00000      
89900   0.13582    0.02981    0.04177    0.00684      0.07062      0.00000      0.00170      0.12243      0.00000      
90000   0.13533    0.02967    0.04160    0.01210      0.06983      0.00000      0.00139      0.13223      0.00000      
90100   0.13668    0.02995    0.04199    0.00918      0.07092      0.00000      0.00005      0.12407      0.00000      
90200   0.13488    0.02958    0.04143    0.00908      0.06996      0.00000      0.00301      0.12708      0.00000      
90300   0.13652    0.02987    0.04190    0.00851      0.07100      0.00000      0.00083      0.12153      0.00000      
90400   0.13973    0.03057    0.04288    0.00766      0.07280      0.00000      0.00280      0.12469      0.00000      
90500   0.13602    0.02972    0.04170    0.00820      0.07087      0.00000      0.00058      0.12298      0.00000      
90600   0.13863    0.03029    0.04252    0.00878      0.07216      0.00000      0.00303      0.11844      0.00000      
90700   0.13803    0.03006    0.04232    0.00843      0.07200      0.00000      0.00628      0.11120      0.00000      
90800   0.13613    0.02967    0.04172    0.00859      0.07098      0.00000      0.00106      0.11395      0.00000      
90900   0.13714    0.02989    0.04202    0.00826      0.07156      0.00000      0.00238      0.10541      0.00000      
91000   0.13358    0.02910    0.04095    0.00867      0.06963      0.00000      0.00611      0.10581      0.00000      
91100   0.13494    0.02934    0.04135    0.00773      0.07053      0.00000      0.00045      0.10270      0.00000      
91200   0.13771    0.02998    0.04219    0.00747      0.07200      0.00000      0.00111      0.11139      0.00000      
91300   0.13491    0.02930    0.04133    0.00656      0.07069      0.00000      0.00045      0.11632      0.00000      
91400   0.13408    0.02911    0.04107    0.01185      0.06969      0.00000      0.00435      0.11277      0.00000      
91500   0.13568    0.02943    0.04156    0.00882      0.07091      0.00000      0.00215      0.10823      0.00000      
91600   0.13265    0.02873    0.04062    0.00827      0.06942      0.00000      0.00180      0.10774      0.00000      
91700   0.13481    0.02920    0.04127    0.00841      0.07056      0.00000      0.00079      0.11088      0.00000      
91800   0.13819    0.02989    0.04225    0.00860      0.07243      0.00000      0.00156      0.11751      0.00000      
91900   0.13423    0.02905    0.04102    0.00827      0.07037      0.00000      0.00189      0.12247      0.00000      
92000   0.13747    0.02974    0.04198    0.00929      0.07203      0.00000      0.00008      0.12406      0.00000      
92100   0.13669    0.02960    0.04175    0.00785      0.07173      0.00000      0.00091      0.11785      0.00000      
92200   0.13557    0.02938    0.04143    0.00838      0.07103      0.00000      0.00479      0.11276      0.00000      
92300   0.13656    0.02954    0.04169    0.00813      0.07169      0.00000      0.00749      0.11132      0.00000      
92400   0.13232    0.02858    0.04039    0.00710      0.06960      0.00000      0.00002      0.11704      0.00000      
92500   0.13363    0.02883    0.04082    0.00708      0.07030      0.00000      0.00224      0.11129      0.00000      
92600   0.13662    0.02950    0.04171    0.00774      0.07182      0.00000      0.00935      0.11260      0.00000      
92700   0.13350    0.02872    0.04071    0.00636      0.07048      0.00000      0.00384      0.11754      0.00000      
92800   0.13313    0.02871    0.04063    0.01105      0.06965      0.00000      0.00334      0.11066      0.00000      
92900   0.13418    0.02891    0.04092    0.00945      0.07045      0.00000      0.00160      0.11762      0.00000      
93000   0.13179    0.02837    0.04021    0.00758      0.06939      0.00000      0.00639      0.10920      0.00000      
93100   0.13365    0.02876    0.04075    0.00775      0.07041      0.00000      0.00943      0.11388      0.00000      
93200   0.13693    0.02942    0.04171    0.00746      0.07228      0.00000      0.00561      0.11138      0.00000      
93300   0.13326    0.02863    0.04061    0.00864      0.07018      0.00000      0.00892      0.11253      0.00000      
93400   0.13607    0.02922    0.04142    0.00829      0.07177      0.00000      0.00339      0.11473      0.00000      
93500   0.13599    0.02921    0.04141    0.00774      0.07177      0.00000      0.00232      0.11703      0.00000      
93600   0.13405    0.02877    0.04079    0.00815      0.07075      0.00000      0.00161      0.11077      0.00000      
93700   0.13542    0.02907    0.04118    0.00831      0.07148      0.00000      0.00456      0.11830      0.00000      
93800   0.13137    0.02822    0.03998    0.00738      0.06937      0.00000      0.00528      0.12100      0.00000      
93900   0.13303    0.02858    0.04044    0.00817      0.07022      0.00000      0.00381      0.11786      0.00000      
94000   0.13577    0.02920    0.04129    0.00697      0.07176      0.00000      0.00267      0.11737      0.00000      
94100   0.13204    0.02838    0.04015    0.00628      0.06987      0.00000      0.00434      0.11660      0.00000      
94200   0.13210    0.02841    0.04018    0.01082      0.06937      0.00000      0.00390      0.12162      0.00000      
94300   0.13366    0.02871    0.04065    0.00885      0.07047      0.00000      0.00614      0.11952      0.00000      
94400   0.13109    0.02820    0.03986    0.00874      0.06907      0.00000      0.00074      0.12029      0.00000      
94500   0.13314    0.02857    0.04046    0.00799      0.07035      0.00000      0.00574      0.11587      0.00000      
94600   0.13644    0.02929    0.04144    0.00755      0.07217      0.00000      0.00189      0.12044      0.00000      
94700   0.13227    0.02834    0.04017    0.00777      0.06998      0.00000      0.00605      0.11392      0.00000      
94800   0.13520    0.02896    0.04105    0.00807      0.07153      0.00000      0.00742      0.11903      0.00000      
94900   0.13473    0.02885    0.04089    0.00789      0.07133      0.00000      0.00597      0.11320      0.00000      
95000   0.13355    0.02860    0.04050    0.00891      0.07062      0.00000      0.00808      0.11037      0.00000      
95100   0.13415    0.02865    0.04066    0.00776      0.07118      0.00000      0.00530      0.10337      0.00000      
95200   0.12969    0.02769    0.03930    0.00677      0.06891      0.00000      0.00871      0.11384      0.00000      
95300   0.13138    0.02804    0.03982    0.00737      0.06976      0.00000      0.00345      0.11017      0.00000      
95400   0.13452    0.02872    0.04074    0.00771      0.07144      0.00000      0.00362      0.11656      0.00000      
95500   0.13124    0.02800    0.03976    0.00773      0.06968      0.00000      0.00969      0.10814      0.00000      
95600   0.13091    0.02789    0.03964    0.01086      0.06922      0.00000      0.00118      0.10413      0.00000      
95700   0.13232    0.02825    0.04010    0.00899      0.07007      0.00000      0.00241      0.09689      0.00000      
95800   0.12986    0.02776    0.03935    0.00767      0.06887      0.00000      0.00535      0.10720      0.00000      
95900   0.13181    0.02812    0.03991    0.00721      0.07006      0.00000      0.00196      0.10753      0.00000      
96000   0.13542    0.02892    0.04102    0.00850      0.07182      0.00000      0.00026      0.11314      0.00000      
96100   0.13170    0.02811    0.03988    0.00974      0.06971      0.00000      0.00822      0.10078      0.00000      
96200   0.13442    0.02872    0.04070    0.00858      0.07127      0.00000      0.00659      0.11142      0.00000      
96300   0.13359    0.02851    0.04044    0.00833      0.07089      0.00000      0.00594      0.10300      0.00000      
96400   0.13232    0.02818    0.04005    0.00900      0.07022      0.00000      0.00635      0.10536      0.00000      
96500   0.13354    0.02845    0.04041    0.00826      0.07095      0.00000      0.01003      0.10388      0.00000      
96600   0.12906    0.02748    0.03905    0.00727      0.06867      0.00000      0.00191      0.10307      0.00000      
96700   0.13089    0.02787    0.03959    0.00736      0.06967      0.00000      0.00036      0.10794      0.00000      
96800   0.13366    0.02843    0.04042    0.00732      0.07120      0.00000      0.00291      0.10009      0.00000      
96900   0.13052    0.02780    0.03949    0.00654      0.06953      0.00000      0.00509      0.09999      0.00000      
97000   0.13053    0.02783    0.03950    0.01065      0.06904      0.00000      0.00445      0.10402      0.00000      
97100   0.13175    0.02810    0.03985    0.00886      0.06991      0.00000      0.00210      0.10074      0.00000      
97200   0.12944    0.02757    0.03916    0.00814      0.06878      0.00000      0.00570      0.10451      0.00000      
97300   0.13090    0.02782    0.03959    0.00745      0.06971      0.00000      0.00424      0.09388      0.00000      
97400   0.13447    0.02853    0.04063    0.00843      0.07163      0.00000      0.00521      0.09552      0.00000      
97500   0.13070    0.02772    0.03948    0.00822      0.06965      0.00000      0.00836      0.09590      0.00000      
97600   0.13371    0.02839    0.04039    0.00895      0.07115      0.00000      0.00249      0.10016      0.00000      
97700   0.13305    0.02824    0.04018    0.00786      0.07094      0.00000      0.00393      0.10160      0.00000      
97800   0.13123    0.02781    0.03961    0.00801      0.07001      0.00000      0.00928      0.09296      0.00000      
97900   0.13266    0.02811    0.04006    0.00800      0.07076      0.00000      0.01277      0.09747      0.00000      
98000   0.12839    0.02721    0.03872    0.00669      0.06865      0.00000      0.00330      0.10084      0.00000      
98100   0.12969    0.02747    0.03913    0.00690      0.06934      0.00000      0.00668      0.10004      0.00000      
98200   0.13268    0.02805    0.03999    0.00730      0.07102      0.00000      0.00689      0.09525      0.00000      
98300   0.12964    0.02737    0.03906    0.00649      0.06951      0.00000      0.00091      0.09255      0.00000      
98400   0.12911    0.02729    0.03890    0.01025      0.06876      0.00000      0.00555      0.09333      0.00000      
98500   0.13054    0.02754    0.03932    0.00896      0.06975      0.00000      0.01078      0.09937      0.00000      
98600   0.12811    0.02702    0.03858    0.00771      0.06860      0.00000      0.01018      0.09555      0.00000      
98700   0.12980    0.02736    0.03910    0.00753      0.06955      0.00000      0.00861      0.10327      0.00000      
98800   0.13326    0.02813    0.04013    0.00799      0.07134      0.00000      0.00150      0.09967      0.00000      
98900   0.12955    0.02731    0.03898    0.00803      0.06940      0.00000      0.00793      0.09686      0.00000      
99000   0.13261    0.02795    0.03989    0.00772      0.07111      0.00000      0.01022      0.10043      0.00000      
99100   0.13196    0.02780    0.03966    0.00773      0.07082      0.00000      0.00276      0.10170      0.00000      
99200   0.13030    0.02743    0.03917    0.00799      0.06990      0.00000      0.00303      0.09985      0.00000      
99300   0.13176    0.02767    0.03959    0.00823      0.07076      0.00000      0.00084      0.09921      0.00000      
99400   0.12723    0.02667    0.03821    0.00721      0.06849      0.00000      0.00103      0.10306      0.00000      
99500   0.12869    0.02697    0.03864    0.00668      0.06935      0.00000      0.00286      0.09935      0.00000      
99600   0.13151    0.02753    0.03945    0.00695      0.07092      0.00000      0.00177      0.10361      0.00000      
99700   0.12822    0.02683    0.03847    0.00602      0.06925      0.00000      0.00508      0.10206      0.00000      
99800   0.12842    0.02690    0.03852    0.01094      0.06878      0.00000      0.00197      0.11406      0.00000      
99900   0.12959    0.02713    0.03885    0.00817      0.06976      0.00000      0.00272      0.10479      0.00000      
100000  0.12707    0.02663    0.03810    0.00731      0.06845      0.00000      0.00283      0.10906      0.00000      

---------------------------------------------------------------
Time used for training = 52761.734375 s.
---------------------------------------------------------------


---------------------------------------------------------------
Finished running nep.
---------------------------------------------------------------

